<?xml version="1.0" encoding="UTF-8"?>

<!-- generated on 12/11/19 11:53:40 by Eclipse SUMO GUI Version 1.3.1
<configuration xmlns:xsi="http://www.w3.org/2001/XMLSchema-instance" xsi:noNamespaceSchemaLocation="http://sumo.dlr.de/xsd/sumoConfiguration.xsd">

    <input>
        <net-file value="./Net/simple.net.xml"/>
        <route-files value="./Net/trips.trips.xml"/>
        <additional-files value="./Net/additional.xml"/>
    </input>

    <output>
        <tripinfo-output value="./Net/Output/NRL/tripinfoTracy.xml"/>
    </output>

    <time>
        <begin value="0"/>
        <end value="5000"/>
    </time>

    <traci_server>
        <remote-port value="51027"/>
    </traci_server>

</configuration>
-->

<detector xmlns:xsi="http://www.w3.org/2001/XMLSchema-instance" xsi:noNamespaceSchemaLocation="http://sumo.dlr.de/xsd/det_e1_file.xsd">
    <interval begin="0.00" end="10.00" id="loop2_0" nVehContrib="0" flow="0.00" occupancy="0.00" speed="-1.00" harmonicMeanSpeed="-1.00" length="-1.00" nVehEntered="0"/>
    <interval begin="0.00" end="10.00" id="loop2_1" nVehContrib="0" flow="0.00" occupancy="0.00" speed="-1.00" harmonicMeanSpeed="-1.00" length="-1.00" nVehEntered="0"/>
    <interval begin="0.00" end="10.00" id="loop3_0" nVehContrib="0" flow="0.00" occupancy="0.00" speed="-1.00" harmonicMeanSpeed="-1.00" length="-1.00" nVehEntered="0"/>
    <interval begin="0.00" end="10.00" id="loop3_1" nVehContrib="0" flow="0.00" occupancy="0.00" speed="-1.00" harmonicMeanSpeed="-1.00" length="-1.00" nVehEntered="0"/>
    <interval begin="0.00" end="10.00" id="loop4_0" nVehContrib="0" flow="0.00" occupancy="0.00" speed="-1.00" harmonicMeanSpeed="-1.00" length="-1.00" nVehEntered="0"/>
    <interval begin="0.00" end="10.00" id="loop4_1" nVehContrib="0" flow="0.00" occupancy="0.00" speed="-1.00" harmonicMeanSpeed="-1.00" length="-1.00" nVehEntered="0"/>
    <interval begin="0.00" end="10.00" id="loop5_0" nVehContrib="0" flow="0.00" occupancy="0.00" speed="-1.00" harmonicMeanSpeed="-1.00" length="-1.00" nVehEntered="0"/>
    <interval begin="0.00" end="10.00" id="loop5_1" nVehContrib="0" flow="0.00" occupancy="0.00" speed="-1.00" harmonicMeanSpeed="-1.00" length="-1.00" nVehEntered="0"/>
    <interval begin="10.00" end="20.00" id="loop2_0" nVehContrib="0" flow="0.00" occupancy="0.00" speed="-1.00" harmonicMeanSpeed="-1.00" length="-1.00" nVehEntered="0"/>
    <interval begin="10.00" end="20.00" id="loop2_1" nVehContrib="0" flow="0.00" occupancy="0.00" speed="-1.00" harmonicMeanSpeed="-1.00" length="-1.00" nVehEntered="0"/>
    <interval begin="10.00" end="20.00" id="loop3_0" nVehContrib="0" flow="0.00" occupancy="0.00" speed="-1.00" harmonicMeanSpeed="-1.00" length="-1.00" nVehEntered="0"/>
    <interval begin="10.00" end="20.00" id="loop3_1" nVehContrib="0" flow="0.00" occupancy="0.00" speed="-1.00" harmonicMeanSpeed="-1.00" length="-1.00" nVehEntered="0"/>
    <interval begin="10.00" end="20.00" id="loop4_0" nVehContrib="0" flow="0.00" occupancy="0.00" speed="-1.00" harmonicMeanSpeed="-1.00" length="-1.00" nVehEntered="0"/>
    <interval begin="10.00" end="20.00" id="loop4_1" nVehContrib="0" flow="0.00" occupancy="0.00" speed="-1.00" harmonicMeanSpeed="-1.00" length="-1.00" nVehEntered="0"/>
    <interval begin="10.00" end="20.00" id="loop5_0" nVehContrib="0" flow="0.00" occupancy="0.00" speed="-1.00" harmonicMeanSpeed="-1.00" length="-1.00" nVehEntered="0"/>
    <interval begin="10.00" end="20.00" id="loop5_1" nVehContrib="0" flow="0.00" occupancy="0.00" speed="-1.00" harmonicMeanSpeed="-1.00" length="-1.00" nVehEntered="0"/>
    <interval begin="20.00" end="30.00" id="loop2_0" nVehContrib="0" flow="0.00" occupancy="0.00" speed="-1.00" harmonicMeanSpeed="-1.00" length="-1.00" nVehEntered="0"/>
    <interval begin="20.00" end="30.00" id="loop2_1" nVehContrib="0" flow="0.00" occupancy="0.00" speed="-1.00" harmonicMeanSpeed="-1.00" length="-1.00" nVehEntered="0"/>
    <interval begin="20.00" end="30.00" id="loop3_0" nVehContrib="0" flow="0.00" occupancy="0.00" speed="-1.00" harmonicMeanSpeed="-1.00" length="-1.00" nVehEntered="0"/>
    <interval begin="20.00" end="30.00" id="loop3_1" nVehContrib="0" flow="0.00" occupancy="0.00" speed="-1.00" harmonicMeanSpeed="-1.00" length="-1.00" nVehEntered="0"/>
    <interval begin="20.00" end="30.00" id="loop4_0" nVehContrib="0" flow="0.00" occupancy="0.00" speed="-1.00" harmonicMeanSpeed="-1.00" length="-1.00" nVehEntered="0"/>
    <interval begin="20.00" end="30.00" id="loop4_1" nVehContrib="0" flow="0.00" occupancy="0.00" speed="-1.00" harmonicMeanSpeed="-1.00" length="-1.00" nVehEntered="0"/>
    <interval begin="20.00" end="30.00" id="loop5_0" nVehContrib="0" flow="0.00" occupancy="0.00" speed="-1.00" harmonicMeanSpeed="-1.00" length="-1.00" nVehEntered="0"/>
    <interval begin="20.00" end="30.00" id="loop5_1" nVehContrib="0" flow="0.00" occupancy="0.00" speed="-1.00" harmonicMeanSpeed="-1.00" length="-1.00" nVehEntered="0"/>
    <interval begin="30.00" end="40.00" id="loop2_0" nVehContrib="0" flow="0.00" occupancy="0.00" speed="-1.00" harmonicMeanSpeed="-1.00" length="-1.00" nVehEntered="0"/>
    <interval begin="30.00" end="40.00" id="loop2_1" nVehContrib="1" flow="360.00" occupancy="3.90" speed="12.83" harmonicMeanSpeed="12.83" length="5.00" nVehEntered="1"/>
    <interval begin="30.00" end="40.00" id="loop3_0" nVehContrib="0" flow="0.00" occupancy="0.00" speed="-1.00" harmonicMeanSpeed="-1.00" length="-1.00" nVehEntered="0"/>
    <interval begin="30.00" end="40.00" id="loop3_1" nVehContrib="1" flow="360.00" occupancy="3.44" speed="14.51" harmonicMeanSpeed="14.51" length="5.00" nVehEntered="1"/>
    <interval begin="30.00" end="40.00" id="loop4_0" nVehContrib="0" flow="0.00" occupancy="0.00" speed="-1.00" harmonicMeanSpeed="-1.00" length="-1.00" nVehEntered="0"/>
    <interval begin="30.00" end="40.00" id="loop4_1" nVehContrib="1" flow="360.00" occupancy="5.83" speed="8.57" harmonicMeanSpeed="8.57" length="5.00" nVehEntered="1"/>
    <interval begin="30.00" end="40.00" id="loop5_0" nVehContrib="0" flow="0.00" occupancy="0.00" speed="-1.00" harmonicMeanSpeed="-1.00" length="-1.00" nVehEntered="0"/>
    <interval begin="30.00" end="40.00" id="loop5_1" nVehContrib="0" flow="0.00" occupancy="0.00" speed="-1.00" harmonicMeanSpeed="-1.00" length="-1.00" nVehEntered="0"/>
    <interval begin="40.00" end="50.00" id="loop2_0" nVehContrib="1" flow="360.00" occupancy="3.97" speed="12.61" harmonicMeanSpeed="12.61" length="5.00" nVehEntered="1"/>
    <interval begin="40.00" end="50.00" id="loop2_1" nVehContrib="1" flow="360.00" occupancy="4.72" speed="10.60" harmonicMeanSpeed="10.60" length="5.00" nVehEntered="1"/>
    <interval begin="40.00" end="50.00" id="loop3_0" nVehContrib="1" flow="360.00" occupancy="3.54" speed="14.12" harmonicMeanSpeed="14.12" length="5.00" nVehEntered="1"/>
    <interval begin="40.00" end="50.00" id="loop3_1" nVehContrib="1" flow="360.00" occupancy="4.51" speed="11.08" harmonicMeanSpeed="11.08" length="5.00" nVehEntered="1"/>
    <interval begin="40.00" end="50.00" id="loop4_0" nVehContrib="1" flow="360.00" occupancy="5.42" speed="9.22" harmonicMeanSpeed="9.22" length="5.00" nVehEntered="1"/>
    <interval begin="40.00" end="50.00" id="loop4_1" nVehContrib="0" flow="0.00" occupancy="0.00" speed="-1.00" harmonicMeanSpeed="-1.00" length="-1.00" nVehEntered="0"/>
    <interval begin="40.00" end="50.00" id="loop5_0" nVehContrib="1" flow="360.00" occupancy="7.56" speed="6.61" harmonicMeanSpeed="6.61" length="5.00" nVehEntered="1"/>
    <interval begin="40.00" end="50.00" id="loop5_1" nVehContrib="1" flow="360.00" occupancy="25.94" speed="8.54" harmonicMeanSpeed="8.54" length="5.00" nVehEntered="2"/>
    <interval begin="50.00" end="60.00" id="loop2_0" nVehContrib="0" flow="0.00" occupancy="0.00" speed="-1.00" harmonicMeanSpeed="-1.00" length="-1.00" nVehEntered="0"/>
    <interval begin="50.00" end="60.00" id="loop2_1" nVehContrib="2" flow="720.00" occupancy="8.57" speed="11.67" harmonicMeanSpeed="11.67" length="5.00" nVehEntered="2"/>
    <interval begin="50.00" end="60.00" id="loop3_0" nVehContrib="1" flow="360.00" occupancy="5.55" speed="12.04" harmonicMeanSpeed="12.04" length="5.00" nVehEntered="2"/>
    <interval begin="50.00" end="60.00" id="loop3_1" nVehContrib="2" flow="720.00" occupancy="9.06" speed="11.23" harmonicMeanSpeed="11.19" length="5.00" nVehEntered="3"/>
    <interval begin="50.00" end="60.00" id="loop4_0" nVehContrib="1" flow="360.00" occupancy="10.95" speed="4.57" harmonicMeanSpeed="4.57" length="5.00" nVehEntered="1"/>
    <interval begin="50.00" end="60.00" id="loop4_1" nVehContrib="1" flow="360.00" occupancy="16.09" speed="3.11" harmonicMeanSpeed="3.11" length="5.00" nVehEntered="1"/>
    <interval begin="50.00" end="60.00" id="loop5_0" nVehContrib="0" flow="0.00" occupancy="60.00" speed="-1.00" harmonicMeanSpeed="-1.00" length="-1.00" nVehEntered="1"/>
    <interval begin="50.00" end="60.00" id="loop5_1" nVehContrib="0" flow="0.00" occupancy="22.30" speed="-1.00" harmonicMeanSpeed="-1.00" length="-1.00" nVehEntered="1"/>
    <interval begin="60.00" end="70.00" id="loop2_0" nVehContrib="1" flow="360.00" occupancy="4.08" speed="12.27" harmonicMeanSpeed="12.27" length="5.00" nVehEntered="1"/>
    <interval begin="60.00" end="70.00" id="loop2_1" nVehContrib="0" flow="0.00" occupancy="0.00" speed="-1.00" harmonicMeanSpeed="-1.00" length="-1.00" nVehEntered="0"/>
    <interval begin="60.00" end="70.00" id="loop3_0" nVehContrib="1" flow="360.00" occupancy="2.24" speed="13.72" harmonicMeanSpeed="13.72" length="5.00" nVehEntered="0"/>
    <interval begin="60.00" end="70.00" id="loop3_1" nVehContrib="3" flow="1080.00" occupancy="20.43" speed="7.51" harmonicMeanSpeed="7.30" length="5.00" nVehEntered="2"/>
    <interval begin="60.00" end="70.00" id="loop4_0" nVehContrib="0" flow="0.00" occupancy="0.00" speed="-1.00" harmonicMeanSpeed="-1.00" length="-1.00" nVehEntered="0"/>
    <interval begin="60.00" end="70.00" id="loop4_1" nVehContrib="0" flow="0.00" occupancy="0.00" speed="-1.00" harmonicMeanSpeed="-1.00" length="-1.00" nVehEntered="0"/>
    <interval begin="60.00" end="70.00" id="loop5_0" nVehContrib="0" flow="0.00" occupancy="100.00" speed="-1.00" harmonicMeanSpeed="-1.00" length="-1.00" nVehEntered="0"/>
    <interval begin="60.00" end="70.00" id="loop5_1" nVehContrib="0" flow="0.00" occupancy="100.00" speed="-1.00" harmonicMeanSpeed="-1.00" length="-1.00" nVehEntered="0"/>
    <interval begin="70.00" end="80.00" id="loop2_0" nVehContrib="2" flow="720.00" occupancy="6.74" speed="14.87" harmonicMeanSpeed="14.84" length="5.00" nVehEntered="2"/>
    <interval begin="70.00" end="80.00" id="loop2_1" nVehContrib="2" flow="720.00" occupancy="8.45" speed="11.85" harmonicMeanSpeed="11.83" length="5.00" nVehEntered="2"/>
    <interval begin="70.00" end="80.00" id="loop3_0" nVehContrib="3" flow="1080.00" occupancy="14.17" speed="10.90" harmonicMeanSpeed="10.59" length="5.00" nVehEntered="3"/>
    <interval begin="70.00" end="80.00" id="loop3_1" nVehContrib="2" flow="720.00" occupancy="12.97" speed="8.91" harmonicMeanSpeed="7.71" length="5.00" nVehEntered="2"/>
    <interval begin="70.00" end="80.00" id="loop4_0" nVehContrib="0" flow="0.00" occupancy="0.00" speed="-1.00" harmonicMeanSpeed="-1.00" length="-1.00" nVehEntered="0"/>
    <interval begin="70.00" end="80.00" id="loop4_1" nVehContrib="0" flow="0.00" occupancy="0.00" speed="-1.00" harmonicMeanSpeed="-1.00" length="-1.00" nVehEntered="0"/>
    <interval begin="70.00" end="80.00" id="loop5_0" nVehContrib="0" flow="0.00" occupancy="100.00" speed="-1.00" harmonicMeanSpeed="-1.00" length="-1.00" nVehEntered="0"/>
    <interval begin="70.00" end="80.00" id="loop5_1" nVehContrib="0" flow="0.00" occupancy="100.00" speed="-1.00" harmonicMeanSpeed="-1.00" length="-1.00" nVehEntered="0"/>
    <interval begin="80.00" end="90.00" id="loop2_0" nVehContrib="0" flow="0.00" occupancy="0.00" speed="-1.00" harmonicMeanSpeed="-1.00" length="-1.00" nVehEntered="0"/>
    <interval begin="80.00" end="90.00" id="loop2_1" nVehContrib="0" flow="0.00" occupancy="0.00" speed="-1.00" harmonicMeanSpeed="-1.00" length="-1.00" nVehEntered="0"/>
    <interval begin="80.00" end="90.00" id="loop3_0" nVehContrib="0" flow="0.00" occupancy="0.00" speed="-1.00" harmonicMeanSpeed="-1.00" length="-1.00" nVehEntered="0"/>
    <interval begin="80.00" end="90.00" id="loop3_1" nVehContrib="1" flow="360.00" occupancy="4.84" speed="10.34" harmonicMeanSpeed="10.34" length="5.00" nVehEntered="1"/>
    <interval begin="80.00" end="90.00" id="loop4_0" nVehContrib="0" flow="0.00" occupancy="0.00" speed="-1.00" harmonicMeanSpeed="-1.00" length="-1.00" nVehEntered="0"/>
    <interval begin="80.00" end="90.00" id="loop4_1" nVehContrib="0" flow="0.00" occupancy="0.00" speed="-1.00" harmonicMeanSpeed="-1.00" length="-1.00" nVehEntered="0"/>
    <interval begin="80.00" end="90.00" id="loop5_0" nVehContrib="0" flow="0.00" occupancy="100.00" speed="-1.00" harmonicMeanSpeed="-1.00" length="-1.00" nVehEntered="0"/>
    <interval begin="80.00" end="90.00" id="loop5_1" nVehContrib="0" flow="0.00" occupancy="100.00" speed="-1.00" harmonicMeanSpeed="-1.00" length="-1.00" nVehEntered="0"/>
    <interval begin="90.00" end="100.00" id="loop2_0" nVehContrib="1" flow="360.00" occupancy="3.57" speed="14.02" harmonicMeanSpeed="14.02" length="5.00" nVehEntered="1"/>
    <interval begin="90.00" end="100.00" id="loop2_1" nVehContrib="2" flow="720.00" occupancy="7.09" speed="14.10" harmonicMeanSpeed="14.10" length="5.00" nVehEntered="2"/>
    <interval begin="90.00" end="100.00" id="loop3_0" nVehContrib="1" flow="360.00" occupancy="4.08" speed="12.25" harmonicMeanSpeed="12.25" length="5.00" nVehEntered="1"/>
    <interval begin="90.00" end="100.00" id="loop3_1" nVehContrib="1" flow="360.00" occupancy="4.95" speed="10.10" harmonicMeanSpeed="10.10" length="5.00" nVehEntered="1"/>
    <interval begin="90.00" end="100.00" id="loop4_0" nVehContrib="0" flow="0.00" occupancy="0.00" speed="-1.00" harmonicMeanSpeed="-1.00" length="-1.00" nVehEntered="0"/>
    <interval begin="90.00" end="100.00" id="loop4_1" nVehContrib="0" flow="0.00" occupancy="0.00" speed="-1.00" harmonicMeanSpeed="-1.00" length="-1.00" nVehEntered="0"/>
    <interval begin="90.00" end="100.00" id="loop5_0" nVehContrib="0" flow="0.00" occupancy="100.00" speed="-1.00" harmonicMeanSpeed="-1.00" length="-1.00" nVehEntered="0"/>
    <interval begin="90.00" end="100.00" id="loop5_1" nVehContrib="0" flow="0.00" occupancy="100.00" speed="-1.00" harmonicMeanSpeed="-1.00" length="-1.00" nVehEntered="0"/>
    <interval begin="100.00" end="110.00" id="loop2_0" nVehContrib="1" flow="360.00" occupancy="3.34" speed="14.97" harmonicMeanSpeed="14.97" length="5.00" nVehEntered="1"/>
    <interval begin="100.00" end="110.00" id="loop2_1" nVehContrib="1" flow="360.00" occupancy="6.64" speed="14.78" harmonicMeanSpeed="14.78" length="5.00" nVehEntered="2"/>
    <interval begin="100.00" end="110.00" id="loop3_0" nVehContrib="1" flow="360.00" occupancy="3.34" speed="14.95" harmonicMeanSpeed="14.95" length="5.00" nVehEntered="1"/>
    <interval begin="100.00" end="110.00" id="loop3_1" nVehContrib="2" flow="720.00" occupancy="8.94" speed="11.26" harmonicMeanSpeed="11.19" length="5.00" nVehEntered="2"/>
    <interval begin="100.00" end="110.00" id="loop4_0" nVehContrib="0" flow="0.00" occupancy="0.00" speed="-1.00" harmonicMeanSpeed="-1.00" length="-1.00" nVehEntered="0"/>
    <interval begin="100.00" end="110.00" id="loop4_1" nVehContrib="0" flow="0.00" occupancy="0.00" speed="-1.00" harmonicMeanSpeed="-1.00" length="-1.00" nVehEntered="0"/>
    <interval begin="100.00" end="110.00" id="loop5_0" nVehContrib="0" flow="0.00" occupancy="100.00" speed="-1.00" harmonicMeanSpeed="-1.00" length="-1.00" nVehEntered="0"/>
    <interval begin="100.00" end="110.00" id="loop5_1" nVehContrib="0" flow="0.00" occupancy="100.00" speed="-1.00" harmonicMeanSpeed="-1.00" length="-1.00" nVehEntered="0"/>
    <interval begin="110.00" end="120.00" id="loop2_0" nVehContrib="1" flow="360.00" occupancy="3.40" speed="14.70" harmonicMeanSpeed="14.70" length="5.00" nVehEntered="1"/>
    <interval begin="110.00" end="120.00" id="loop2_1" nVehContrib="3" flow="1080.00" occupancy="8.88" speed="12.47" harmonicMeanSpeed="12.36" length="5.00" nVehEntered="2"/>
    <interval begin="110.00" end="120.00" id="loop3_0" nVehContrib="1" flow="360.00" occupancy="3.95" speed="12.67" harmonicMeanSpeed="12.67" length="5.00" nVehEntered="1"/>
    <interval begin="110.00" end="120.00" id="loop3_1" nVehContrib="1" flow="360.00" occupancy="5.11" speed="9.79" harmonicMeanSpeed="9.79" length="5.00" nVehEntered="1"/>
    <interval begin="110.00" end="120.00" id="loop4_0" nVehContrib="0" flow="0.00" occupancy="0.00" speed="-1.00" harmonicMeanSpeed="-1.00" length="-1.00" nVehEntered="0"/>
    <interval begin="110.00" end="120.00" id="loop4_1" nVehContrib="0" flow="0.00" occupancy="0.00" speed="-1.00" harmonicMeanSpeed="-1.00" length="-1.00" nVehEntered="0"/>
    <interval begin="110.00" end="120.00" id="loop5_0" nVehContrib="0" flow="0.00" occupancy="100.00" speed="-1.00" harmonicMeanSpeed="-1.00" length="-1.00" nVehEntered="0"/>
    <interval begin="110.00" end="120.00" id="loop5_1" nVehContrib="0" flow="0.00" occupancy="100.00" speed="-1.00" harmonicMeanSpeed="-1.00" length="-1.00" nVehEntered="0"/>
    <interval begin="120.00" end="130.00" id="loop2_0" nVehContrib="1" flow="360.00" occupancy="3.46" speed="14.45" harmonicMeanSpeed="14.45" length="5.00" nVehEntered="1"/>
    <interval begin="120.00" end="130.00" id="loop2_1" nVehContrib="1" flow="360.00" occupancy="4.29" speed="11.66" harmonicMeanSpeed="11.66" length="5.00" nVehEntered="1"/>
    <interval begin="120.00" end="130.00" id="loop3_0" nVehContrib="0" flow="0.00" occupancy="0.00" speed="-1.00" harmonicMeanSpeed="-1.00" length="-1.00" nVehEntered="0"/>
    <interval begin="120.00" end="130.00" id="loop3_1" nVehContrib="2" flow="720.00" occupancy="10.70" speed="9.70" harmonicMeanSpeed="9.35" length="5.00" nVehEntered="2"/>
    <interval begin="120.00" end="130.00" id="loop4_0" nVehContrib="0" flow="0.00" occupancy="0.00" speed="-1.00" harmonicMeanSpeed="-1.00" length="-1.00" nVehEntered="0"/>
    <interval begin="120.00" end="130.00" id="loop4_1" nVehContrib="0" flow="0.00" occupancy="0.00" speed="-1.00" harmonicMeanSpeed="-1.00" length="-1.00" nVehEntered="0"/>
    <interval begin="120.00" end="130.00" id="loop5_0" nVehContrib="0" flow="0.00" occupancy="100.00" speed="-1.00" harmonicMeanSpeed="-1.00" length="-1.00" nVehEntered="0"/>
    <interval begin="120.00" end="130.00" id="loop5_1" nVehContrib="0" flow="0.00" occupancy="100.00" speed="-1.00" harmonicMeanSpeed="-1.00" length="-1.00" nVehEntered="0"/>
    <interval begin="130.00" end="140.00" id="loop2_0" nVehContrib="0" flow="0.00" occupancy="0.00" speed="-1.00" harmonicMeanSpeed="-1.00" length="-1.00" nVehEntered="0"/>
    <interval begin="130.00" end="140.00" id="loop2_1" nVehContrib="2" flow="720.00" occupancy="7.62" speed="13.14" harmonicMeanSpeed="13.12" length="5.00" nVehEntered="2"/>
    <interval begin="130.00" end="140.00" id="loop3_0" nVehContrib="0" flow="0.00" occupancy="0.00" speed="-1.00" harmonicMeanSpeed="-1.00" length="-1.00" nVehEntered="0"/>
    <interval begin="130.00" end="140.00" id="loop3_1" nVehContrib="2" flow="720.00" occupancy="14.02" speed="10.52" harmonicMeanSpeed="10.19" length="5.00" nVehEntered="3"/>
    <interval begin="130.00" end="140.00" id="loop4_0" nVehContrib="0" flow="0.00" occupancy="0.00" speed="-1.00" harmonicMeanSpeed="-1.00" length="-1.00" nVehEntered="0"/>
    <interval begin="130.00" end="140.00" id="loop4_1" nVehContrib="0" flow="0.00" occupancy="0.00" speed="-1.00" harmonicMeanSpeed="-1.00" length="-1.00" nVehEntered="0"/>
    <interval begin="130.00" end="140.00" id="loop5_0" nVehContrib="0" flow="0.00" occupancy="100.00" speed="-1.00" harmonicMeanSpeed="-1.00" length="-1.00" nVehEntered="0"/>
    <interval begin="130.00" end="140.00" id="loop5_1" nVehContrib="0" flow="0.00" occupancy="100.00" speed="-1.00" harmonicMeanSpeed="-1.00" length="-1.00" nVehEntered="0"/>
    <interval begin="140.00" end="150.00" id="loop2_0" nVehContrib="0" flow="0.00" occupancy="0.00" speed="-1.00" harmonicMeanSpeed="-1.00" length="-1.00" nVehEntered="0"/>
    <interval begin="140.00" end="150.00" id="loop2_1" nVehContrib="1" flow="360.00" occupancy="4.42" speed="11.30" harmonicMeanSpeed="11.30" length="5.00" nVehEntered="1"/>
    <interval begin="140.00" end="150.00" id="loop3_0" nVehContrib="0" flow="0.00" occupancy="3.35" speed="-1.00" harmonicMeanSpeed="-1.00" length="-1.00" nVehEntered="1"/>
    <interval begin="140.00" end="150.00" id="loop3_1" nVehContrib="3" flow="1080.00" occupancy="13.16" speed="8.95" harmonicMeanSpeed="8.64" length="5.00" nVehEntered="2"/>
    <interval begin="140.00" end="150.00" id="loop4_0" nVehContrib="0" flow="0.00" occupancy="0.00" speed="-1.00" harmonicMeanSpeed="-1.00" length="-1.00" nVehEntered="0"/>
    <interval begin="140.00" end="150.00" id="loop4_1" nVehContrib="0" flow="0.00" occupancy="0.00" speed="-1.00" harmonicMeanSpeed="-1.00" length="-1.00" nVehEntered="0"/>
    <interval begin="140.00" end="150.00" id="loop5_0" nVehContrib="0" flow="0.00" occupancy="100.00" speed="-1.00" harmonicMeanSpeed="-1.00" length="-1.00" nVehEntered="0"/>
    <interval begin="140.00" end="150.00" id="loop5_1" nVehContrib="0" flow="0.00" occupancy="100.00" speed="-1.00" harmonicMeanSpeed="-1.00" length="-1.00" nVehEntered="0"/>
    <interval begin="150.00" end="160.00" id="loop2_0" nVehContrib="3" flow="1080.00" occupancy="12.82" speed="11.72" harmonicMeanSpeed="11.70" length="5.00" nVehEntered="3"/>
    <interval begin="150.00" end="160.00" id="loop2_1" nVehContrib="2" flow="720.00" occupancy="6.34" speed="15.79" harmonicMeanSpeed="15.77" length="5.00" nVehEntered="2"/>
    <interval begin="150.00" end="160.00" id="loop3_0" nVehContrib="2" flow="720.00" occupancy="3.99" speed="13.63" harmonicMeanSpeed="13.62" length="5.00" nVehEntered="1"/>
    <interval begin="150.00" end="160.00" id="loop3_1" nVehContrib="1" flow="360.00" occupancy="5.27" speed="9.49" harmonicMeanSpeed="9.49" length="5.00" nVehEntered="1"/>
    <interval begin="150.00" end="160.00" id="loop4_0" nVehContrib="0" flow="0.00" occupancy="0.00" speed="-1.00" harmonicMeanSpeed="-1.00" length="-1.00" nVehEntered="0"/>
    <interval begin="150.00" end="160.00" id="loop4_1" nVehContrib="0" flow="0.00" occupancy="0.00" speed="-1.00" harmonicMeanSpeed="-1.00" length="-1.00" nVehEntered="0"/>
    <interval begin="150.00" end="160.00" id="loop5_0" nVehContrib="0" flow="0.00" occupancy="100.00" speed="-1.00" harmonicMeanSpeed="-1.00" length="-1.00" nVehEntered="0"/>
    <interval begin="150.00" end="160.00" id="loop5_1" nVehContrib="0" flow="0.00" occupancy="100.00" speed="-1.00" harmonicMeanSpeed="-1.00" length="-1.00" nVehEntered="0"/>
    <interval begin="160.00" end="170.00" id="loop2_0" nVehContrib="0" flow="0.00" occupancy="0.00" speed="-1.00" harmonicMeanSpeed="-1.00" length="-1.00" nVehEntered="0"/>
    <interval begin="160.00" end="170.00" id="loop2_1" nVehContrib="0" flow="0.00" occupancy="0.00" speed="-1.00" harmonicMeanSpeed="-1.00" length="-1.00" nVehEntered="0"/>
    <interval begin="160.00" end="170.00" id="loop3_0" nVehContrib="2" flow="720.00" occupancy="7.19" speed="13.92" harmonicMeanSpeed="13.90" length="5.00" nVehEntered="2"/>
    <interval begin="160.00" end="170.00" id="loop3_1" nVehContrib="1" flow="360.00" occupancy="5.32" speed="9.39" harmonicMeanSpeed="9.39" length="5.00" nVehEntered="1"/>
    <interval begin="160.00" end="170.00" id="loop4_0" nVehContrib="0" flow="0.00" occupancy="0.00" speed="-1.00" harmonicMeanSpeed="-1.00" length="-1.00" nVehEntered="0"/>
    <interval begin="160.00" end="170.00" id="loop4_1" nVehContrib="0" flow="0.00" occupancy="0.00" speed="-1.00" harmonicMeanSpeed="-1.00" length="-1.00" nVehEntered="0"/>
    <interval begin="160.00" end="170.00" id="loop5_0" nVehContrib="0" flow="0.00" occupancy="100.00" speed="-1.00" harmonicMeanSpeed="-1.00" length="-1.00" nVehEntered="0"/>
    <interval begin="160.00" end="170.00" id="loop5_1" nVehContrib="0" flow="0.00" occupancy="100.00" speed="-1.00" harmonicMeanSpeed="-1.00" length="-1.00" nVehEntered="0"/>
    <interval begin="170.00" end="180.00" id="loop2_0" nVehContrib="1" flow="360.00" occupancy="3.88" speed="12.89" harmonicMeanSpeed="12.89" length="5.00" nVehEntered="1"/>
    <interval begin="170.00" end="180.00" id="loop2_1" nVehContrib="2" flow="720.00" occupancy="7.90" speed="12.81" harmonicMeanSpeed="12.66" length="5.00" nVehEntered="2"/>
    <interval begin="170.00" end="180.00" id="loop3_0" nVehContrib="1" flow="360.00" occupancy="3.49" speed="14.33" harmonicMeanSpeed="14.33" length="5.00" nVehEntered="1"/>
    <interval begin="170.00" end="180.00" id="loop3_1" nVehContrib="1" flow="360.00" occupancy="4.00" speed="12.49" harmonicMeanSpeed="12.49" length="5.00" nVehEntered="1"/>
    <interval begin="170.00" end="180.00" id="loop4_0" nVehContrib="0" flow="0.00" occupancy="0.00" speed="-1.00" harmonicMeanSpeed="-1.00" length="-1.00" nVehEntered="0"/>
    <interval begin="170.00" end="180.00" id="loop4_1" nVehContrib="0" flow="0.00" occupancy="0.00" speed="-1.00" harmonicMeanSpeed="-1.00" length="-1.00" nVehEntered="0"/>
    <interval begin="170.00" end="180.00" id="loop5_0" nVehContrib="0" flow="0.00" occupancy="100.00" speed="-1.00" harmonicMeanSpeed="-1.00" length="-1.00" nVehEntered="0"/>
    <interval begin="170.00" end="180.00" id="loop5_1" nVehContrib="0" flow="0.00" occupancy="100.00" speed="-1.00" harmonicMeanSpeed="-1.00" length="-1.00" nVehEntered="0"/>
    <interval begin="180.00" end="190.00" id="loop2_0" nVehContrib="1" flow="360.00" occupancy="3.48" speed="14.36" harmonicMeanSpeed="14.36" length="5.00" nVehEntered="1"/>
    <interval begin="180.00" end="190.00" id="loop2_1" nVehContrib="2" flow="720.00" occupancy="12.89" speed="11.92" harmonicMeanSpeed="11.90" length="5.00" nVehEntered="3"/>
    <interval begin="180.00" end="190.00" id="loop3_0" nVehContrib="0" flow="0.00" occupancy="0.00" speed="-1.00" harmonicMeanSpeed="-1.00" length="-1.00" nVehEntered="0"/>
    <interval begin="180.00" end="190.00" id="loop3_1" nVehContrib="1" flow="360.00" occupancy="3.90" speed="12.81" harmonicMeanSpeed="12.81" length="5.00" nVehEntered="1"/>
    <interval begin="180.00" end="190.00" id="loop4_0" nVehContrib="0" flow="0.00" occupancy="0.00" speed="-1.00" harmonicMeanSpeed="-1.00" length="-1.00" nVehEntered="0"/>
    <interval begin="180.00" end="190.00" id="loop4_1" nVehContrib="0" flow="0.00" occupancy="0.00" speed="-1.00" harmonicMeanSpeed="-1.00" length="-1.00" nVehEntered="0"/>
    <interval begin="180.00" end="190.00" id="loop5_0" nVehContrib="0" flow="0.00" occupancy="100.00" speed="-1.00" harmonicMeanSpeed="-1.00" length="-1.00" nVehEntered="0"/>
    <interval begin="180.00" end="190.00" id="loop5_1" nVehContrib="0" flow="0.00" occupancy="100.00" speed="-1.00" harmonicMeanSpeed="-1.00" length="-1.00" nVehEntered="0"/>
    <interval begin="190.00" end="200.00" id="loop2_0" nVehContrib="1" flow="360.00" occupancy="3.44" speed="14.54" harmonicMeanSpeed="14.54" length="5.00" nVehEntered="1"/>
    <interval begin="190.00" end="200.00" id="loop2_1" nVehContrib="1" flow="360.00" occupancy="0.36" speed="10.32" harmonicMeanSpeed="10.32" length="5.00" nVehEntered="0"/>
    <interval begin="190.00" end="200.00" id="loop3_0" nVehContrib="2" flow="720.00" occupancy="7.99" speed="12.53" harmonicMeanSpeed="12.51" length="5.00" nVehEntered="2"/>
    <interval begin="190.00" end="200.00" id="loop3_1" nVehContrib="2" flow="720.00" occupancy="11.28" speed="9.23" harmonicMeanSpeed="8.86" length="5.00" nVehEntered="2"/>
    <interval begin="190.00" end="200.00" id="loop4_0" nVehContrib="0" flow="0.00" occupancy="0.00" speed="-1.00" harmonicMeanSpeed="-1.00" length="-1.00" nVehEntered="0"/>
    <interval begin="190.00" end="200.00" id="loop4_1" nVehContrib="0" flow="0.00" occupancy="0.00" speed="-1.00" harmonicMeanSpeed="-1.00" length="-1.00" nVehEntered="0"/>
    <interval begin="190.00" end="200.00" id="loop5_0" nVehContrib="0" flow="0.00" occupancy="100.00" speed="-1.00" harmonicMeanSpeed="-1.00" length="-1.00" nVehEntered="0"/>
    <interval begin="190.00" end="200.00" id="loop5_1" nVehContrib="0" flow="0.00" occupancy="100.00" speed="-1.00" harmonicMeanSpeed="-1.00" length="-1.00" nVehEntered="0"/>
    <interval begin="200.00" end="210.00" id="loop2_0" nVehContrib="1" flow="360.00" occupancy="3.12" speed="16.02" harmonicMeanSpeed="16.02" length="5.00" nVehEntered="1"/>
    <interval begin="200.00" end="210.00" id="loop2_1" nVehContrib="1" flow="360.00" occupancy="5.97" speed="12.43" harmonicMeanSpeed="12.43" length="5.00" nVehEntered="2"/>
    <interval begin="200.00" end="210.00" id="loop3_0" nVehContrib="2" flow="720.00" occupancy="8.02" speed="12.47" harmonicMeanSpeed="12.47" length="5.00" nVehEntered="2"/>
    <interval begin="200.00" end="210.00" id="loop3_1" nVehContrib="1" flow="360.00" occupancy="4.29" speed="11.64" harmonicMeanSpeed="11.64" length="5.00" nVehEntered="1"/>
    <interval begin="200.00" end="210.00" id="loop4_0" nVehContrib="0" flow="0.00" occupancy="0.00" speed="-1.00" harmonicMeanSpeed="-1.00" length="-1.00" nVehEntered="0"/>
    <interval begin="200.00" end="210.00" id="loop4_1" nVehContrib="0" flow="0.00" occupancy="0.00" speed="-1.00" harmonicMeanSpeed="-1.00" length="-1.00" nVehEntered="0"/>
    <interval begin="200.00" end="210.00" id="loop5_0" nVehContrib="0" flow="0.00" occupancy="100.00" speed="-1.00" harmonicMeanSpeed="-1.00" length="-1.00" nVehEntered="0"/>
    <interval begin="200.00" end="210.00" id="loop5_1" nVehContrib="0" flow="0.00" occupancy="100.00" speed="-1.00" harmonicMeanSpeed="-1.00" length="-1.00" nVehEntered="0"/>