<?xml version="1.0" encoding="UTF-8"?>

<!-- generated on 12/05/19 18:36:03 by Eclipse SUMO GUI Version 1.3.1
<configuration xmlns:xsi="http://www.w3.org/2001/XMLSchema-instance" xsi:noNamespaceSchemaLocation="http://sumo.dlr.de/xsd/sumoConfiguration.xsd">

    <input>
        <net-file value="C:\Users\Gabriel\Documents\GitHub\SUMO-Gabriel\TrafficSimulatorAI\demoRandomCars\Net\simple.net.xml"/>
        <route-files value="C:\Users\Gabriel\Documents\GitHub\SUMO-Gabriel\TrafficSimulatorAI\demoRandomCars\Net\trips.trips.xml"/>
        <additional-files value="C:\Users\Gabriel\Documents\GitHub\SUMO-Gabriel\TrafficSimulatorAI\demoRandomCars\Net\additional.xml"/>
    </input>

    <output>
        <tripinfo-output value="C:\Users\Gabriel\Documents\GitHub\SUMO-Gabriel\TrafficSimulatorAI\demoRandomCars\Net\output/tripinfo.xml"/>
    </output>

    <time>
        <begin value="0"/>
        <end value="5000"/>
    </time>

</configuration>
-->

<tripinfos xmlns:xsi="http://www.w3.org/2001/XMLSchema-instance" xsi:noNamespaceSchemaLocation="http://sumo.dlr.de/xsd/tripinfo_file.xsd">
</tripinfos>
