<?xml version="1.0" encoding="UTF-8"?>

<!-- generated on 11/05/19 11:58:07 by Eclipse SUMO Version 1.3.1
<configuration xmlns:xsi="http://www.w3.org/2001/XMLSchema-instance" xsi:noNamespaceSchemaLocation="http://sumo.dlr.de/xsd/sumoConfiguration.xsd">

    <input>
        <net-file value="simple.net.xml"/>
        <route-files value="trips.trips.xml"/>
        <additional-files value="additional.xml"/>
    </input>

    <output>
        <tripinfo-output value="output/tripinfo.xml"/>
    </output>

    <time>
        <begin value="0"/>
        <end value="2000"/>
    </time>

</configuration>
-->

<detector xmlns:xsi="http://www.w3.org/2001/XMLSchema-instance" xsi:noNamespaceSchemaLocation="http://sumo.dlr.de/xsd/det_e1_file.xsd">
    <interval begin="0.00" end="100.00" id="loop2_0" nVehContrib="5" flow="180.00" occupancy="1.88" speed="13.41" harmonicMeanSpeed="13.30" length="5.00" nVehEntered="5"/>
    <interval begin="0.00" end="100.00" id="loop2_1" nVehContrib="8" flow="288.00" occupancy="3.38" speed="11.95" harmonicMeanSpeed="11.85" length="5.00" nVehEntered="8"/>
    <interval begin="0.00" end="100.00" id="loop3_0" nVehContrib="7" flow="252.00" occupancy="3.03" speed="11.64" harmonicMeanSpeed="11.54" length="5.00" nVehEntered="7"/>
    <interval begin="0.00" end="100.00" id="loop3_1" nVehContrib="11" flow="396.00" occupancy="6.49" speed="9.06" harmonicMeanSpeed="8.48" length="5.00" nVehEntered="11"/>
    <interval begin="0.00" end="100.00" id="loop4_0" nVehContrib="4" flow="144.00" occupancy="5.10" speed="5.49" harmonicMeanSpeed="4.63" length="5.00" nVehEntered="5"/>
    <interval begin="0.00" end="100.00" id="loop4_1" nVehContrib="5" flow="180.00" occupancy="4.63" speed="6.47" harmonicMeanSpeed="5.40" length="5.00" nVehEntered="5"/>
    <interval begin="0.00" end="100.00" id="loop5_0" nVehContrib="4" flow="144.00" occupancy="23.89" speed="4.81" harmonicMeanSpeed="0.84" length="5.00" nVehEntered="4"/>
    <interval begin="0.00" end="100.00" id="loop5_1" nVehContrib="4" flow="144.00" occupancy="38.37" speed="5.10" harmonicMeanSpeed="0.52" length="5.00" nVehEntered="4"/>
    <interval begin="100.00" end="194.00" id="loop2_0" nVehContrib="10" flow="382.98" occupancy="24.09" speed="10.35" harmonicMeanSpeed="2.21" length="5.00" nVehEntered="10"/>
    <interval begin="100.00" end="194.00" id="loop2_1" nVehContrib="10" flow="382.98" occupancy="66.97" speed="3.05" harmonicMeanSpeed="0.98" length="5.00" nVehEntered="11"/>
    <interval begin="100.00" end="194.00" id="loop3_0" nVehContrib="8" flow="306.38" occupancy="24.38" speed="10.82" harmonicMeanSpeed="1.75" length="5.00" nVehEntered="8"/>
    <interval begin="100.00" end="194.00" id="loop3_1" nVehContrib="9" flow="344.68" occupancy="71.15" speed="3.10" harmonicMeanSpeed="0.84" length="5.00" nVehEntered="10"/>
    <interval begin="100.00" end="194.00" id="loop4_0" nVehContrib="13" flow="497.87" occupancy="11.17" speed="7.35" harmonicMeanSpeed="6.05" length="5.00" nVehEntered="13"/>
    <interval begin="100.00" end="194.00" id="loop4_1" nVehContrib="9" flow="344.68" occupancy="9.25" speed="6.27" harmonicMeanSpeed="5.18" length="5.00" nVehEntered="9"/>
    <interval begin="100.00" end="194.00" id="loop5_0" nVehContrib="10" flow="382.98" occupancy="47.19" speed="8.40" harmonicMeanSpeed="1.13" length="5.00" nVehEntered="11"/>
    <interval begin="100.00" end="194.00" id="loop5_1" nVehContrib="10" flow="382.98" occupancy="77.74" speed="2.92" harmonicMeanSpeed="0.78" length="5.00" nVehEntered="11"/>
</detector>
